<tripinfos>
  <tripinfo id="veh0" duration="40.0" waitingTime="4.0" timeLoss="6.0"/>
  <tripinfo id="veh1" duration="60.0" waitingTime="6.0" timeLoss="8.0"/>
</tripinfos>
