<tripinfos>
  <tripinfo id="veh0" duration="50.0" waitingTime="5.0" timeLoss="7.0"/>
  <tripinfo id="veh1" duration="70.0" waitingTime="7.0" timeLoss="9.0"/>
</tripinfos>
