<?xml version="1.0" encoding="UTF-8"?>

<!-- generated on 2026-06-21T19:22:09.994683+01:00 by Eclipse SUMO sumo 1.26.0
<sumoConfiguration xmlns:xsi="http://www.w3.org/2001/XMLSchema-instance" xsi:noNamespaceSchemaLocation="http://sumo.dlr.de/xsd/sumoConfiguration.xsd">

    <input>
        <net-file value="outputs\bit-zhongguancun-campus\bit_zhongguancun.net.xml"/>
        <route-files value="outputs\bit-zhongguancun-campus\routeability.rou.xml"/>
    </input>

    <output>
        <summary-output value="outputs\bit-zhongguancun-campus\routeability-summary.xml"/>
        <tripinfo-output value="outputs\bit-zhongguancun-campus\routeability-tripinfo.xml"/>
    </output>

    <time>
        <begin value="0"/>
        <end value="1200"/>
    </time>

    <report>
        <verbose value="true"/>
        <no-step-log value="true"/>
    </report>

</sumoConfiguration>
-->

<tripinfos xmlns:xsi="http://www.w3.org/2001/XMLSchema-instance" xsi:noNamespaceSchemaLocation="http://sumo.dlr.de/xsd/tripinfo_file.xsd">
    <tripinfo id="1" depart="30.00" departLane="-934714246#3_0" departPos="5.10" departSpeed="0.00" departDelay="0.00" arrival="111.00" arrivalLane="-352009351#0_0" arrivalPos="213.32" arrivalSpeed="11.99" duration="81.00" routeLength="854.63" waitingTime="0.00" waitingCount="0" stopTime="0.00" timeLoss="12.41" rerouteNo="0" devices="tripinfo_1" vType="passenger" speedFactor="0.94" vaporized=""/>
    <tripinfo id="0" depart="0.00" departLane="167649023#0_0" departPos="5.10" departSpeed="0.00" departDelay="0.00" arrival="131.00" arrivalLane="-1341230760#0_0" arrivalPos="0.20" arrivalSpeed="6.04" duration="131.00" routeLength="1824.50" waitingTime="26.00" waitingCount="2" stopTime="0.00" timeLoss="55.33" rerouteNo="0" devices="tripinfo_0" vType="passenger" speedFactor="1.06" vaporized=""/>
    <tripinfo id="3" depart="90.00" departLane="1341230759_0" departPos="5.10" departSpeed="0.00" departDelay="0.00" arrival="136.00" arrivalLane="-1341230760#0_0" arrivalPos="0.20" arrivalSpeed="8.85" duration="46.00" routeLength="504.73" waitingTime="0.00" waitingCount="0" stopTime="0.00" timeLoss="10.58" rerouteNo="0" devices="tripinfo_3" vType="passenger" speedFactor="1.08" vaporized=""/>
    <tripinfo id="4" depart="120.00" departLane="-934713612#6_0" departPos="5.10" departSpeed="0.00" departDelay="0.00" arrival="192.00" arrivalLane="1341230765_0" arrivalPos="239.42" arrivalSpeed="13.31" duration="72.00" routeLength="876.24" waitingTime="0.00" waitingCount="0" stopTime="0.00" timeLoss="9.50" rerouteNo="0" devices="tripinfo_4" vType="passenger" speedFactor="1.03" vaporized=""/>
    <tripinfo id="2" depart="60.00" departLane="257453039#4_0" departPos="5.10" departSpeed="0.00" departDelay="0.00" arrival="208.00" arrivalLane="182042882#1_0" arrivalPos="180.01" arrivalSpeed="21.63" duration="148.00" routeLength="1296.19" waitingTime="50.00" waitingCount="2" stopTime="0.00" timeLoss="86.89" rerouteNo="0" devices="tripinfo_2" vType="passenger" speedFactor="1.01" vaporized=""/>
    <tripinfo id="5" depart="150.00" departLane="-1341230762_0" departPos="5.10" departSpeed="0.00" departDelay="0.00" arrival="262.00" arrivalLane="-257453041_0" arrivalPos="89.82" arrivalSpeed="10.92" duration="112.00" routeLength="1043.66" waitingTime="0.00" waitingCount="0" stopTime="0.00" timeLoss="15.99" rerouteNo="0" devices="tripinfo_5" vType="passenger" speedFactor="0.83" vaporized=""/>
    <tripinfo id="7" depart="210.00" departLane="-934713612#6_0" departPos="5.10" departSpeed="0.00" departDelay="0.00" arrival="326.00" arrivalLane="160097699#0_0" arrivalPos="61.32" arrivalSpeed="11.62" duration="116.00" routeLength="1142.53" waitingTime="0.00" waitingCount="0" stopTime="0.00" timeLoss="23.85" rerouteNo="0" devices="tripinfo_7" vType="passenger" speedFactor="0.89" vaporized=""/>
    <tripinfo id="6" depart="180.00" departLane="182040093_0" departPos="5.10" departSpeed="0.00" departDelay="0.00" arrival="371.00" arrivalLane="139339318#1_0" arrivalPos="978.04" arrivalSpeed="27.92" duration="191.00" routeLength="2680.59" waitingTime="45.00" waitingCount="2" stopTime="0.00" timeLoss="78.57" rerouteNo="0" devices="tripinfo_6" vType="passenger" speedFactor="1.05" vaporized=""/>
    <tripinfo id="8" depart="240.00" departLane="42399132_0" departPos="5.10" departSpeed="0.00" departDelay="0.00" arrival="402.00" arrivalLane="-1341230759_0" arrivalPos="36.56" arrivalSpeed="11.90" duration="162.00" routeLength="1898.55" waitingTime="0.00" waitingCount="0" stopTime="0.00" timeLoss="18.94" rerouteNo="0" devices="tripinfo_8" vType="passenger" speedFactor="0.94" vaporized=""/>
    <tripinfo id="9" depart="270.00" departLane="42399132_0" departPos="5.10" departSpeed="0.00" departDelay="0.00" arrival="469.00" arrivalLane="219439618#0_0" arrivalPos="578.39" arrivalSpeed="23.34" duration="199.00" routeLength="2319.12" waitingTime="20.00" waitingCount="1" stopTime="0.00" timeLoss="41.44" rerouteNo="0" devices="tripinfo_9" vType="passenger" speedFactor="0.86" vaporized=""/>
</tripinfos>
